  variables="x","y","u","v" 
  zone i=         301 j=          61
   0.00000000       0.00000000       0.00000000       0.00000000    
   6.66666683E-03   0.00000000       0.00000000       0.00000000    
   1.33333337E-02   0.00000000       0.00000000       0.00000000    
   1.99999996E-02   0.00000000       0.00000000       0.00000000    
   2.66666673E-02   0.00000000       0.00000000       0.00000000    
   3.33333351E-02   0.00000000       0.00000000       0.00000000    
   4.00000028E-02   0.00000000       0.00000000       0.00000000    
   4.66666706E-02   0.00000000       0.00000000       0.00000000    
   5.33333384E-02   0.00000000       0.00000000       0.00000000    
   6.00000061E-02   0.00000000       0.00000000       0.00000000    
   6.66666701E-02   0.00000000       0.00000000       0.00000000    
   7.33333379E-02   0.00000000       0.00000000       0.00000000    
   8.00000057E-02   0.00000000       0.00000000       0.00000000    
   8.66666734E-02   0.00000000       0.00000000       0.00000000    
   9.33333412E-02   0.00000000       0.00000000       0.00000000    
  0.100000009       0.00000000       0.00000000       0.00000000    
  0.106666677       0.00000000       0.00000000       0.00000000    
  0.113333344       0.00000000       0.00000000       0.00000000    
  0.120000012       0.00000000       0.00000000       0.00000000    
  0.126666680       0.00000000       0.00000000       0.00000000    
  0.133333340       0.00000000       0.00000000       0.00000000    
  0.140000001       0.00000000       0.00000000       0.00000000    
  0.146666661       0.00000000       0.00000000       0.00000000    
  0.153333321       0.00000000       0.00000000       0.00000000    
  0.159999982       0.00000000       0.00000000       0.00000000    
  0.166666642       0.00000000       0.00000000       0.00000000    
  0.173333302       0.00000000       0.00000000       0.00000000    
  0.179999962       0.00000000       0.00000000       0.00000000    
  0.186666623       0.00000000       0.00000000       0.00000000    
  0.193333283       0.00000000       0.00000000       0.00000000    
  0.199999943       0.00000000       0.00000000       0.00000000    
  0.206666604       0.00000000       0.00000000       0.00000000    
  0.213333264       0.00000000       0.00000000       0.00000000    
  0.219999924       0.00000000       0.00000000       0.00000000    
  0.226666585       0.00000000       0.00000000       0.00000000    
  0.233333245       0.00000000       0.00000000       0.00000000    
  0.239999905       0.00000000       0.00000000       0.00000000    
  0.246666566       0.00000000       0.00000000       0.00000000    
  0.253333241       0.00000000       0.00000000       0.00000000    
  0.259999901       0.00000000       0.00000000       0.00000000    
  0.266666561       0.00000000       0.00000000       0.00000000    
  0.273333222       0.00000000       0.00000000       0.00000000    
  0.279999882       0.00000000       0.00000000       0.00000000    
  0.286666542       0.00000000       0.00000000       0.00000000    
  0.293333203       0.00000000       0.00000000       0.00000000    
  0.299999863       0.00000000       0.00000000       0.00000000    
  0.306666523       0.00000000       0.00000000       0.00000000    
  0.313333184       0.00000000       0.00000000       0.00000000    
  0.319999844       0.00000000       0.00000000       0.00000000    
  0.326666504       0.00000000       0.00000000       0.00000000    
  0.333333164       0.00000000       0.00000000       0.00000000    
  0.339999825       0.00000000       0.00000000       0.00000000    
  0.346666485       0.00000000       0.00000000       0.00000000    
  0.353333145       0.00000000       0.00000000       0.00000000    
  0.359999806       0.00000000       0.00000000       0.00000000    
  0.366666466       0.00000000       0.00000000       0.00000000    
  0.373333126       0.00000000       0.00000000       0.00000000    
  0.379999787       0.00000000       0.00000000       0.00000000    
  0.386666447       0.00000000       0.00000000       0.00000000    
  0.393333107       0.00000000       0.00000000       0.00000000    
  0.399999768       0.00000000       3.30555551E-02   0.00000000    
  0.406666428       0.00000000       3.30555551E-02   0.00000000    
  0.413333088       0.00000000       3.30555551E-02   0.00000000    
  0.419999748       0.00000000       3.30555551E-02   0.00000000    
  0.426666409       0.00000000       3.30555551E-02   0.00000000    
  0.433333069       0.00000000       3.30555551E-02   0.00000000    
  0.439999729       0.00000000       3.30555551E-02   0.00000000    
  0.446666390       0.00000000       3.30555551E-02   0.00000000    
  0.453333050       0.00000000       3.30555551E-02   0.00000000    
  0.459999710       0.00000000       3.30555551E-02   0.00000000    
  0.466666371       0.00000000       3.30555551E-02   0.00000000    
  0.473333031       0.00000000       3.30555551E-02   0.00000000    
  0.479999691       0.00000000       3.30555551E-02   0.00000000    
  0.486666352       0.00000000       3.30555551E-02   0.00000000    
  0.493333012       0.00000000       3.30555551E-02   0.00000000    
  0.499999672       0.00000000       3.30555551E-02   0.00000000    
  0.506666362       0.00000000       3.30555551E-02   0.00000000    
  0.513333023       0.00000000       3.30555551E-02   0.00000000    
  0.519999683       0.00000000       3.30555551E-02   0.00000000    
  0.526666343       0.00000000       3.30555551E-02   0.00000000    
  0.533333004       0.00000000       3.30555551E-02   0.00000000    
  0.539999664       0.00000000       3.30555551E-02   0.00000000    
  0.546666324       0.00000000       3.30555551E-02   0.00000000    
  0.553332984       0.00000000       3.30555551E-02   0.00000000    
  0.559999645       0.00000000       3.30555551E-02   0.00000000    
  0.566666305       0.00000000       3.30555551E-02   0.00000000    
  0.573332965       0.00000000       3.30555551E-02   0.00000000    
  0.579999626       0.00000000       3.30555551E-02   0.00000000    
  0.586666286       0.00000000       3.30555551E-02   0.00000000    
  0.593332946       0.00000000       3.30555551E-02   0.00000000    
  0.599999607       0.00000000       3.30555551E-02   0.00000000    
  0.606666267       0.00000000       3.30555551E-02   0.00000000    
  0.613332927       0.00000000       3.30555551E-02   0.00000000    
  0.619999588       0.00000000       3.30555551E-02   0.00000000    
  0.626666248       0.00000000       3.30555551E-02   0.00000000    
  0.633332908       0.00000000       3.30555551E-02   0.00000000    
  0.639999568       0.00000000       3.30555551E-02   0.00000000    
  0.646666229       0.00000000       3.30555551E-02   0.00000000    
  0.653332889       0.00000000       3.30555551E-02   0.00000000    
  0.659999549       0.00000000       3.30555551E-02   0.00000000    
  0.666666210       0.00000000       3.30555551E-02   0.00000000    
  0.673332870       0.00000000       3.30555551E-02   0.00000000    
  0.679999530       0.00000000       3.30555551E-02   0.00000000    
  0.686666191       0.00000000       3.30555551E-02   0.00000000    
  0.693332851       0.00000000       3.30555551E-02   0.00000000    
  0.699999511       0.00000000       3.30555551E-02   0.00000000    
  0.706666172       0.00000000       3.30555551E-02   0.00000000    
  0.713332832       0.00000000       3.30555551E-02   0.00000000    
  0.719999492       0.00000000       3.30555551E-02   0.00000000    
  0.726666152       0.00000000       3.30555551E-02   0.00000000    
  0.733332813       0.00000000       3.30555551E-02   0.00000000    
  0.739999473       0.00000000       3.30555551E-02   0.00000000    
  0.746666133       0.00000000       3.30555551E-02   0.00000000    
  0.753332794       0.00000000       3.30555551E-02   0.00000000    
  0.759999454       0.00000000       3.30555551E-02   0.00000000    
  0.766666114       0.00000000       3.30555551E-02   0.00000000    
  0.773332775       0.00000000       3.30555551E-02   0.00000000    
  0.779999435       0.00000000       3.30555551E-02   0.00000000    
  0.786666095       0.00000000       3.30555551E-02   0.00000000    
  0.793332756       0.00000000       3.30555551E-02   0.00000000    
  0.799999416       0.00000000       3.30555551E-02   0.00000000    
  0.806666076       0.00000000       3.30555551E-02   0.00000000    
  0.813332736       0.00000000       3.30555551E-02   0.00000000    
  0.819999397       0.00000000       3.30555551E-02   0.00000000    
  0.826666057       0.00000000       3.30555551E-02   0.00000000    
  0.833332717       0.00000000       3.30555551E-02   0.00000000    
  0.839999378       0.00000000       3.30555551E-02   0.00000000    
  0.846666038       0.00000000       3.30555551E-02   0.00000000    
  0.853332698       0.00000000       3.30555551E-02   0.00000000    
  0.859999359       0.00000000       3.30555551E-02   0.00000000    
  0.866666019       0.00000000       3.30555551E-02   0.00000000    
  0.873332679       0.00000000       3.30555551E-02   0.00000000    
  0.879999340       0.00000000       3.30555551E-02   0.00000000    
  0.886666000       0.00000000       3.30555551E-02   0.00000000    
  0.893332660       0.00000000       3.30555551E-02   0.00000000    
  0.899999321       0.00000000       3.30555551E-02   0.00000000    
  0.906665981       0.00000000       3.30555551E-02   0.00000000    
  0.913332641       0.00000000       3.30555551E-02   0.00000000    
  0.919999301       0.00000000       3.30555551E-02   0.00000000    
  0.926665962       0.00000000       3.30555551E-02   0.00000000    
  0.933332622       0.00000000       3.30555551E-02   0.00000000    
  0.939999282       0.00000000       3.30555551E-02   0.00000000    
  0.946665943       0.00000000       3.30555551E-02   0.00000000    
  0.953332603       0.00000000       3.30555551E-02   0.00000000    
  0.959999263       0.00000000       3.30555551E-02   0.00000000    
  0.966665924       0.00000000       3.30555551E-02   0.00000000    
  0.973332584       0.00000000       3.30555551E-02   0.00000000    
  0.979999244       0.00000000       3.30555551E-02   0.00000000    
  0.986665905       0.00000000       3.30555551E-02   0.00000000    
  0.993332565       0.00000000       3.30555551E-02   0.00000000    
  0.999999225       0.00000000       3.30555551E-02   0.00000000    
   1.00666595       0.00000000       3.30555551E-02   0.00000000    
   1.01333261       0.00000000       3.30555551E-02   0.00000000    
   1.01999927       0.00000000       3.30555551E-02   0.00000000    
   1.02666593       0.00000000       3.30555551E-02   0.00000000    
   1.03333259       0.00000000       3.30555551E-02   0.00000000    
   1.03999925       0.00000000       3.30555551E-02   0.00000000    
   1.04666591       0.00000000       3.30555551E-02   0.00000000    
   1.05333257       0.00000000       3.30555551E-02   0.00000000    
   1.05999923       0.00000000       3.30555551E-02   0.00000000    
   1.06666589       0.00000000       3.30555551E-02   0.00000000    
   1.07333255       0.00000000       3.30555551E-02   0.00000000    
   1.07999921       0.00000000       3.30555551E-02   0.00000000    
   1.08666587       0.00000000       3.30555551E-02   0.00000000    
   1.09333253       0.00000000       3.30555551E-02   0.00000000    
   1.09999919       0.00000000       3.30555551E-02   0.00000000    
   1.10666585       0.00000000       3.30555551E-02   0.00000000    
   1.11333251       0.00000000       3.30555551E-02   0.00000000    
   1.11999917       0.00000000       3.30555551E-02   0.00000000    
   1.12666583       0.00000000       3.30555551E-02   0.00000000    
   1.13333249       0.00000000       3.30555551E-02   0.00000000    
   1.13999915       0.00000000       3.30555551E-02   0.00000000    
   1.14666581       0.00000000       3.30555551E-02   0.00000000    
   1.15333247       0.00000000       3.30555551E-02   0.00000000    
   1.15999913       0.00000000       3.30555551E-02   0.00000000    
   1.16666579       0.00000000       3.30555551E-02   0.00000000    
   1.17333245       0.00000000       3.30555551E-02   0.00000000    
   1.17999911       0.00000000       3.30555551E-02   0.00000000    
   1.18666577       0.00000000       3.30555551E-02   0.00000000    
   1.19333243       0.00000000       3.30555551E-02   0.00000000    
   1.19999909       0.00000000       3.30555551E-02   0.00000000    
   1.20666575       0.00000000       3.30555551E-02   0.00000000    
   1.21333241       0.00000000       3.30555551E-02   0.00000000    
   1.21999907       0.00000000       3.30555551E-02   0.00000000    
   1.22666574       0.00000000       3.30555551E-02   0.00000000    
   1.23333240       0.00000000       3.30555551E-02   0.00000000    
   1.23999906       0.00000000       3.30555551E-02   0.00000000    
   1.24666572       0.00000000       3.30555551E-02   0.00000000    
   1.25333238       0.00000000       3.30555551E-02   0.00000000    
   1.25999904       0.00000000       3.30555551E-02   0.00000000    
   1.26666570       0.00000000       3.30555551E-02   0.00000000    
   1.27333236       0.00000000       3.30555551E-02   0.00000000    
   1.27999902       0.00000000       3.30555551E-02   0.00000000    
   1.28666568       0.00000000       3.30555551E-02   0.00000000    
   1.29333234       0.00000000       3.30555551E-02   0.00000000    
   1.29999900       0.00000000       3.30555551E-02   0.00000000    
   1.30666566       0.00000000       3.30555551E-02   0.00000000    
   1.31333232       0.00000000       3.30555551E-02   0.00000000    
   1.31999898       0.00000000       3.30555551E-02   0.00000000    
   1.32666564       0.00000000       3.30555551E-02   0.00000000    
   1.33333230       0.00000000       3.30555551E-02   0.00000000    
   1.33999896       0.00000000       3.30555551E-02   0.00000000    
   1.34666562       0.00000000       3.30555551E-02   0.00000000    
   1.35333228       0.00000000       3.30555551E-02   0.00000000    
   1.35999894       0.00000000       3.30555551E-02   0.00000000    
   1.36666560       0.00000000       3.30555551E-02   0.00000000    
   1.37333226       0.00000000       3.30555551E-02   0.00000000    
   1.37999892       0.00000000       3.30555551E-02   0.00000000    
   1.38666558       0.00000000       3.30555551E-02   0.00000000    
   1.39333224       0.00000000       3.30555551E-02   0.00000000    
   1.39999890       0.00000000       3.30555551E-02   0.00000000    
   1.40666556       0.00000000       3.30555551E-02   0.00000000    
   1.41333222       0.00000000       3.30555551E-02   0.00000000    
   1.41999888       0.00000000       3.30555551E-02   0.00000000    
   1.42666554       0.00000000       3.30555551E-02   0.00000000    
   1.43333220       0.00000000       3.30555551E-02   0.00000000    
   1.43999887       0.00000000       3.30555551E-02   0.00000000    
   1.44666553       0.00000000       3.30555551E-02   0.00000000    
   1.45333219       0.00000000       3.30555551E-02   0.00000000    
   1.45999885       0.00000000       3.30555551E-02   0.00000000    
   1.46666551       0.00000000       3.30555551E-02   0.00000000    
   1.47333217       0.00000000       3.30555551E-02   0.00000000    
   1.47999883       0.00000000       3.30555551E-02   0.00000000    
   1.48666549       0.00000000       3.30555551E-02   0.00000000    
   1.49333215       0.00000000       3.30555551E-02   0.00000000    
   1.49999881       0.00000000       3.30555551E-02   0.00000000    
   1.50666547       0.00000000       3.30555551E-02   0.00000000    
   1.51333213       0.00000000       3.30555551E-02   0.00000000    
   1.51999879       0.00000000       3.30555551E-02   0.00000000    
   1.52666545       0.00000000       3.30555551E-02   0.00000000    
   1.53333211       0.00000000       3.30555551E-02   0.00000000    
   1.53999877       0.00000000       3.30555551E-02   0.00000000    
   1.54666543       0.00000000       3.30555551E-02   0.00000000    
   1.55333209       0.00000000       3.30555551E-02   0.00000000    
   1.55999875       0.00000000       3.30555551E-02   0.00000000    
   1.56666541       0.00000000       3.30555551E-02   0.00000000    
   1.57333207       0.00000000       3.30555551E-02   0.00000000    
   1.57999873       0.00000000       3.30555551E-02   0.00000000    
   1.58666539       0.00000000       3.30555551E-02   0.00000000    
   1.59333205       0.00000000       3.30555551E-02   0.00000000    
   1.59999871       0.00000000       3.30555551E-02   0.00000000    
   1.60666537       0.00000000       3.30555551E-02   0.00000000    
   1.61333203       0.00000000       3.30555551E-02   0.00000000    
   1.61999869       0.00000000       3.30555551E-02   0.00000000    
   1.62666535       0.00000000       3.30555551E-02   0.00000000    
   1.63333201       0.00000000       3.30555551E-02   0.00000000    
   1.63999867       0.00000000       3.30555551E-02   0.00000000    
   1.64666533       0.00000000       3.30555551E-02   0.00000000    
   1.65333200       0.00000000       3.30555551E-02   0.00000000    
   1.65999866       0.00000000       3.30555551E-02   0.00000000    
   1.66666532       0.00000000       3.30555551E-02   0.00000000    
   1.67333198       0.00000000       3.30555551E-02   0.00000000    
   1.67999864       0.00000000       3.30555551E-02   0.00000000    
   1.68666530       0.00000000       3.30555551E-02   0.00000000    
   1.69333196       0.00000000       3.30555551E-02   0.00000000    
   1.69999862       0.00000000       3.30555551E-02   0.00000000    
   1.70666528       0.00000000       3.30555551E-02   0.00000000    
   1.71333194       0.00000000       3.30555551E-02   0.00000000    
   1.71999860       0.00000000       3.30555551E-02   0.00000000    
   1.72666526       0.00000000       3.30555551E-02   0.00000000    
   1.73333192       0.00000000       3.30555551E-02   0.00000000    
   1.73999858       0.00000000       3.30555551E-02   0.00000000    
   1.74666524       0.00000000       3.30555551E-02   0.00000000    
   1.75333190       0.00000000       3.30555551E-02   0.00000000    
   1.75999856       0.00000000       3.30555551E-02   0.00000000    
   1.76666522       0.00000000       3.30555551E-02   0.00000000    
   1.77333188       0.00000000       3.30555551E-02   0.00000000    
   1.77999854       0.00000000       3.30555551E-02   0.00000000    
   1.78666520       0.00000000       3.30555551E-02   0.00000000    
   1.79333186       0.00000000       3.30555551E-02   0.00000000    
   1.79999852       0.00000000       3.30555551E-02   0.00000000    
   1.80666518       0.00000000       3.30555551E-02   0.00000000    
   1.81333184       0.00000000       3.30555551E-02   0.00000000    
   1.81999850       0.00000000       3.30555551E-02   0.00000000    
   1.82666516       0.00000000       3.30555551E-02   0.00000000    
   1.83333182       0.00000000       3.30555551E-02   0.00000000    
   1.83999848       0.00000000       3.30555551E-02   0.00000000    
   1.84666514       0.00000000       3.30555551E-02   0.00000000    
   1.85333180       0.00000000       3.30555551E-02   0.00000000    
   1.85999846       0.00000000       3.30555551E-02   0.00000000    
   1.86666512       0.00000000       3.30555551E-02   0.00000000    
   1.87333179       0.00000000       3.30555551E-02   0.00000000    
   1.87999845       0.00000000       3.30555551E-02   0.00000000    
   1.88666511       0.00000000       3.30555551E-02   0.00000000    
   1.89333177       0.00000000       3.30555551E-02   0.00000000    
   1.89999843       0.00000000       3.30555551E-02   0.00000000    
   1.90666509       0.00000000       3.30555551E-02   0.00000000    
   1.91333175       0.00000000       3.30555551E-02   0.00000000    
   1.91999841       0.00000000       3.30555551E-02   0.00000000    
   1.92666507       0.00000000       3.30555551E-02   0.00000000    
   1.93333173       0.00000000       3.30555551E-02   0.00000000    
   1.93999839       0.00000000       3.30555551E-02   0.00000000    
   1.94666505       0.00000000       3.30555551E-02   0.00000000    
   1.95333171       0.00000000       3.30555551E-02   0.00000000    
   1.95999837       0.00000000       3.30555551E-02   0.00000000    
   1.96666503       0.00000000       3.30555551E-02   0.00000000    
   1.97333169       0.00000000       3.30555551E-02   0.00000000    
   1.97999835       0.00000000       3.30555551E-02   0.00000000    
   1.98666501       0.00000000       3.30555551E-02   0.00000000    
   1.99333167       0.00000000       3.30555551E-02   0.00000000    
   2.00000000       0.00000000       3.30555551E-02   0.00000000    
   0.00000000       1.66666671E-03   0.00000000       0.00000000    
   6.66666683E-03   1.66666671E-03   0.00000000       0.00000000    
   1.33333337E-02   1.66666671E-03   0.00000000       0.00000000    
   1.99999996E-02   1.66666671E-03   0.00000000       0.00000000    
   2.66666673E-02   1.66666671E-03   0.00000000       0.00000000    
   3.33333351E-02   1.66666671E-03   0.00000000       0.00000000    
   4.00000028E-02   1.66666671E-03   0.00000000       0.00000000    
   4.66666706E-02   1.66666671E-03   0.00000000       0.00000000    
   5.33333384E-02   1.66666671E-03   0.00000000       0.00000000    
   6.00000061E-02   1.66666671E-03   0.00000000       0.00000000    
   6.66666701E-02   1.66666671E-03   0.00000000       0.00000000    
   7.33333379E-02   1.66666671E-03   0.00000000       0.00000000    
   8.00000057E-02   1.66666671E-03   0.00000000       0.00000000    
   8.66666734E-02   1.66666671E-03   0.00000000       0.00000000    
   9.33333412E-02   1.66666671E-03   0.00000000       0.00000000    
  0.100000009       1.66666671E-03   0.00000000       0.00000000    
  0.106666677       1.66666671E-03   0.00000000       0.00000000    
  0.113333344       1.66666671E-03   0.00000000       0.00000000    
  0.120000012       1.66666671E-03   0.00000000       0.00000000    
  0.126666680       1.66666671E-03   0.00000000       0.00000000    
  0.133333340       1.66666671E-03   0.00000000       0.00000000    
  0.140000001       1.66666671E-03   0.00000000       0.00000000    
  0.146666661       1.66666671E-03   0.00000000       0.00000000    
  0.153333321       1.66666671E-03   0.00000000       0.00000000    
  0.159999982       1.66666671E-03   0.00000000       0.00000000    
  0.166666642       1.66666671E-03   0.00000000       0.00000000    
  0.173333302       1.66666671E-03   0.00000000       0.00000000    
  0.179999962       1.66666671E-03   0.00000000       0.00000000    
  0.186666623       1.66666671E-03   0.00000000       0.00000000    
  0.193333283       1.66666671E-03   0.00000000       0.00000000    
  0.199999943       1.66666671E-03   0.00000000       0.00000000    
  0.206666604       1.66666671E-03   0.00000000       0.00000000    
  0.213333264       1.66666671E-03   0.00000000       0.00000000    
  0.219999924       1.66666671E-03   0.00000000       0.00000000    
  0.226666585       1.66666671E-03   0.00000000       0.00000000    
  0.233333245       1.66666671E-03   0.00000000       0.00000000    
  0.239999905       1.66666671E-03   0.00000000       0.00000000    
  0.246666566       1.66666671E-03   0.00000000       0.00000000    
  0.253333241       1.66666671E-03   0.00000000       0.00000000    
  0.259999901       1.66666671E-03   0.00000000       0.00000000    
  0.266666561       1.66666671E-03   0.00000000       0.00000000    
  0.273333222       1.66666671E-03   0.00000000       0.00000000    
  0.279999882       1.66666671E-03   0.00000000       0.00000000    
  0.286666542       1.66666671E-03   0.00000000       0.00000000    
  0.293333203       1.66666671E-03   0.00000000       0.00000000    
  0.299999863       1.66666671E-03   0.00000000       0.00000000    
  0.306666523       1.66666671E-03   0.00000000       0.00000000    
  0.313333184       1.66666671E-03   0.00000000       0.00000000    
  0.319999844       1.66666671E-03   0.00000000       0.00000000    
  0.326666504       1.66666671E-03   0.00000000       0.00000000    
  0.333333164       1.66666671E-03   0.00000000       0.00000000    
  0.339999825       1.66666671E-03   0.00000000       0.00000000    
  0.346666485       1.66666671E-03   0.00000000       0.00000000    
  0.353333145       1.66666671E-03   0.00000000       0.00000000    
  0.359999806       1.66666671E-03   0.00000000       0.00000000    
  0.366666466       1.66666671E-03   0.00000000       0.00000000    
  0.373333126       1.66666671E-03   0.00000000       0.00000000    
  0.379999787       1.66666671E-03   0.00000000       0.00000000    
  0.386666447       1.66666671E-03   0.00000000       0.00000000    
  0.393333107       1.66666671E-03   0.00000000       0.00000000    
  0.399999768       1.66666671E-03   9.74999964E-02   0.00000000    
  0.406666428       1.66666671E-03   9.74999964E-02   0.00000000    
  0.413333088       1.66666671E-03   9.74999964E-02   0.00000000    
  0.419999748       1.66666671E-03   9.74999964E-02   0.00000000    
  0.426666409       1.66666671E-03   9.74999964E-02   0.00000000    
  0.433333069       1.66666671E-03   9.74999964E-02   0.00000000    
  0.439999729       1.66666671E-03   9.74999964E-02   0.00000000    
  0.446666390       1.66666671E-03   9.74999964E-02   0.00000000    
  0.453333050       1.66666671E-03   9.74999964E-02   0.00000000    
  0.459999710       1.66666671E-03   9.74999964E-02   0.00000000    
  0.466666371       1.66666671E-03   9.74999964E-02   0.00000000    
  0.473333031       1.66666671E-03   9.74999964E-02   0.00000000    
  0.479999691       1.66666671E-03   9.74999964E-02   0.00000000    
  0.486666352       1.66666671E-03   9.74999964E-02   0.00000000    
  0.493333012       1.66666671E-03   9.74999964E-02   0.00000000    
  0.499999672       1.66666671E-03   9.74999964E-02   0.00000000    
  0.506666362       1.66666671E-03   9.74999964E-02   0.00000000    
  0.513333023       1.66666671E-03   9.74999964E-02   0.00000000    
  0.519999683       1.66666671E-03   9.74999964E-02   0.00000000    
  0.526666343       1.66666671E-03   9.74999964E-02   0.00000000    
  0.533333004       1.66666671E-03   9.74999964E-02   0.00000000    
  0.539999664       1.66666671E-03   9.74999964E-02   0.00000000    
  0.546666324       1.66666671E-03   9.74999964E-02   0.00000000    
  0.553332984       1.66666671E-03   9.74999964E-02   0.00000000    
  0.559999645       1.66666671E-03   9.74999964E-02   0.00000000    
  0.566666305       1.66666671E-03   9.74999964E-02   0.00000000    
  0.573332965       1.66666671E-03   9.74999964E-02   0.00000000    
  0.579999626       1.66666671E-03   9.74999964E-02   0.00000000    
  0.586666286       1.66666671E-03   9.74999964E-02   0.00000000    
  0.593332946       1.66666671E-03   9.74999964E-02   0.00000000    
  0.599999607       1.66666671E-03   9.74999964E-02   0.00000000    
  0.606666267       1.66666671E-03   9.74999964E-02   0.00000000    
  0.613332927       1.66666671E-03   9.74999964E-02   0.00000000    
  0.619999588       1.66666671E-03   9.74999964E-02   0.00000000    
  0.626666248       1.66666671E-03   9.74999964E-02   0.00000000    
  0.633332908       1.66666671E-03   9.74999964E-02   0.00000000    
  0.639999568       1.66666671E-03   9.74999964E-02   0.00000000    
  0.646666229       1.66666671E-03   9.74999964E-02   0.00000000    
  0.653332889       1.66666671E-03   9.74999964E-02   0.00000000    
  0.659999549       1.66666671E-03   9.74999964E-02   0.00000000    
  0.666666210       1.66666671E-03   9.74999964E-02   0.00000000    
  0.673332870       1.66666671E-03   9.74999964E-02   0.00000000    
  0.679999530       1.66666671E-03   9.74999964E-02   0.00000000    
  0.686666191       1.66666671E-03   9.74999964E-02   0.00000000    
  0.693332851       1.66666671E-03   9.74999964E-02   0.00000000    
  0.699999511       1.66666671E-03   9.74999964E-02   0.00000000    
  0.706666172       1.66666671E-03   9.74999964E-02   0.00000000    
  0.713332832       1.66666671E-03   9.74999964E-02   0.00000000    
  0.719999492       1.66666671E-03   9.74999964E-02   0.00000000    
  0.726666152       1.66666671E-03   9.74999964E-02   0.00000000    
  0.733332813       1.66666671E-03   9.74999964E-02   0.00000000    
  0.739999473       1.66666671E-03   9.74999964E-02   0.00000000    
  0.746666133       1.66666671E-03   9.74999964E-02   0.00000000    
  0.753332794       1.66666671E-03   9.74999964E-02   0.00000000    
  0.759999454       1.66666671E-03   9.74999964E-02   0.00000000    
  0.766666114       1.66666671E-03   9.74999964E-02   0.00000000    
  0.773332775       1.66666671E-03   9.74999964E-02   0.00000000    
  0.779999435       1.66666671E-03   9.74999964E-02   0.00000000    
  0.786666095       1.66666671E-03   9.74999964E-02   0.00000000    
  0.793332756       1.66666671E-03   9.74999964E-02   0.00000000    
  0.799999416       1.66666671E-03   9.74999964E-02   0.00000000    
  0.806666076       1.66666671E-03   9.74999964E-02   0.00000000    
  0.813332736       1.66666671E-03   9.74999964E-02   0.00000000    
  0.819999397       1.66666671E-03   9.74999964E-02   0.00000000    
  0.826666057       1.66666671E-03   9.74999964E-02   0.00000000    
  0.833332717       1.66666671E-03   9.74999964E-02   0.00000000    
  0.839999378       1.66666671E-03   9.74999964E-02   0.00000000    
  0.846666038       1.66666671E-03   9.74999964E-02   0.00000000    
  0.853332698       1.66666671E-03   9.74999964E-02   0.00000000    
  0.859999359       1.66666671E-03   9.74999964E-02   0.00000000    
  0.866666019       1.66666671E-03   9.74999964E-02   0.00000000    
  0.873332679       1.66666671E-03   9.74999964E-02   0.00000000    